+ 2.002 /NodeList/0/DeviceList/1/$ns3::CsmaNetDevice/TxQueue/Enqueue ns3::EthernetHeader ( length/type=0x806, source=00:00:00:00:00:01, destination=ff:ff:ff:ff:ff:ff) ns3::ArpHeader (request source mac: 00-06-00:00:00:00:00:01 source ipv4: 10.1.1.1 dest ipv4: 10.1.1.5) Payload (size=18) ns3::EthernetTrailer (fcs=0)
- 2.002 /NodeList/0/DeviceList/1/$ns3::CsmaNetDevice/TxQueue/Dequeue ns3::EthernetHeader ( length/type=0x806, source=00:00:00:00:00:01, destination=ff:ff:ff:ff:ff:ff) ns3::ArpHeader (request source mac: 00-06-00:00:00:00:00:01 source ipv4: 10.1.1.1 dest ipv4: 10.1.1.5) Payload (size=18) ns3::EthernetTrailer (fcs=0)
+ 2.002 /NodeList/7/DeviceList/1/$ns3::CsmaNetDevice/TxQueue/Enqueue ns3::EthernetHeader ( length/type=0x806, source=00:00:00:00:00:08, destination=ff:ff:ff:ff:ff:ff) ns3::ArpHeader (request source mac: 00-06-00:00:00:00:00:08 source ipv4: 10.1.1.8 dest ipv4: 10.1.1.4) Payload (size=18) ns3::EthernetTrailer (fcs=0)
- 2.002 /NodeList/7/DeviceList/1/$ns3::CsmaNetDevice/TxQueue/Dequeue ns3::EthernetHeader ( length/type=0x806, source=00:00:00:00:00:08, destination=ff:ff:ff:ff:ff:ff) ns3::ArpHeader (request source mac: 00-06-00:00:00:00:00:08 source ipv4: 10.1.1.8 dest ipv4: 10.1.1.4) Payload (size=18) ns3::EthernetTrailer (fcs=0)
+ 2.004 /NodeList/1/DeviceList/1/$ns3::CsmaNetDevice/TxQueue/Enqueue ns3::EthernetHeader ( length/type=0x806, source=00:00:00:00:00:02, destination=ff:ff:ff:ff:ff:ff) ns3::ArpHeader (request source mac: 00-06-00:00:00:00:00:02 source ipv4: 10.1.1.2 dest ipv4: 10.1.1.6) Payload (size=18) ns3::EthernetTrailer (fcs=0)
- 2.004 /NodeList/1/DeviceList/1/$ns3::CsmaNetDevice/TxQueue/Dequeue ns3::EthernetHeader ( length/type=0x806, source=00:00:00:00:00:02, destination=ff:ff:ff:ff:ff:ff) ns3::ArpHeader (request source mac: 00-06-00:00:00:00:00:02 source ipv4: 10.1.1.2 dest ipv4: 10.1.1.6) Payload (size=18) ns3::EthernetTrailer (fcs=0)
r 2.0045 /NodeList/0/DeviceList/1/$ns3::CsmaNetDevice/MacRx ns3::EthernetHeader ( length/type=0x806, source=00:00:00:00:00:08, destination=ff:ff:ff:ff:ff:ff) ns3::ArpHeader (request source mac: 00-06-00:00:00:00:00:08 source ipv4: 10.1.1.8 dest ipv4: 10.1.1.4) Payload (size=18) ns3::EthernetTrailer (fcs=0)
r 2.0045 /NodeList/1/DeviceList/1/$ns3::CsmaNetDevice/MacRx ns3::EthernetHeader ( length/type=0x806, source=00:00:00:00:00:08, destination=ff:ff:ff:ff:ff:ff) ns3::ArpHeader (request source mac: 00-06-00:00:00:00:00:08 source ipv4: 10.1.1.8 dest ipv4: 10.1.1.4) Payload (size=18) ns3::EthernetTrailer (fcs=0)
r 2.0045 /NodeList/2/DeviceList/1/$ns3::CsmaNetDevice/MacRx ns3::EthernetHeader ( length/type=0x806, source=00:00:00:00:00:08, destination=ff:ff:ff:ff:ff:ff) ns3::ArpHeader (request source mac: 00-06-00:00:00:00:00:08 source ipv4: 10.1.1.8 dest ipv4: 10.1.1.4) Payload (size=18) ns3::EthernetTrailer (fcs=0)
r 2.0045 /NodeList/3/DeviceList/1/$ns3::CsmaNetDevice/MacRx ns3::EthernetHeader ( length/type=0x806, source=00:00:00:00:00:08, destination=ff:ff:ff:ff:ff:ff) ns3::ArpHeader (request source mac: 00-06-00:00:00:00:00:08 source ipv4: 10.1.1.8 dest ipv4: 10.1.1.4) Payload (size=18) ns3::EthernetTrailer (fcs=0)
+ 2.0045 /NodeList/3/DeviceList/1/$ns3::CsmaNetDevice/TxQueue/Enqueue ns3::EthernetHeader ( length/type=0x806, source=00:00:00:00:00:04, destination=00:00:00:00:00:08) ns3::ArpHeader (reply source mac: 00-06-00:00:00:00:00:04 source ipv4: 10.1.1.4 dest mac: 00-06-00:00:00:00:00:08 dest ipv4: 10.1.1.8) Payload (size=18) ns3::EthernetTrailer (fcs=0)
- 2.0045 /NodeList/3/DeviceList/1/$ns3::CsmaNetDevice/TxQueue/Dequeue ns3::EthernetHeader ( length/type=0x806, source=00:00:00:00:00:04, destination=00:00:00:00:00:08) ns3::ArpHeader (reply source mac: 00-06-00:00:00:00:00:04 source ipv4: 10.1.1.4 dest mac: 00-06-00:00:00:00:00:08 dest ipv4: 10.1.1.8) Payload (size=18) ns3::EthernetTrailer (fcs=0)
r 2.0045 /NodeList/4/DeviceList/1/$ns3::CsmaNetDevice/MacRx ns3::EthernetHeader ( length/type=0x806, source=00:00:00:00:00:08, destination=ff:ff:ff:ff:ff:ff) ns3::ArpHeader (request source mac: 00-06-00:00:00:00:00:08 source ipv4: 10.1.1.8 dest ipv4: 10.1.1.4) Payload (size=18) ns3::EthernetTrailer (fcs=0)
r 2.0045 /NodeList/5/DeviceList/1/$ns3::CsmaNetDevice/MacRx ns3::EthernetHeader ( length/type=0x806, source=00:00:00:00:00:08, destination=ff:ff:ff:ff:ff:ff) ns3::ArpHeader (request source mac: 00-06-00:00:00:00:00:08 source ipv4: 10.1.1.8 dest ipv4: 10.1.1.4) Payload (size=18) ns3::EthernetTrailer (fcs=0)
r 2.0045 /NodeList/6/DeviceList/1/$ns3::CsmaNetDevice/MacRx ns3::EthernetHeader ( length/type=0x806, source=00:00:00:00:00:08, destination=ff:ff:ff:ff:ff:ff) ns3::ArpHeader (request source mac: 00-06-00:00:00:00:00:08 source ipv4: 10.1.1.8 dest ipv4: 10.1.1.4) Payload (size=18) ns3::EthernetTrailer (fcs=0)
r 2.007 /NodeList/7/DeviceList/1/$ns3::CsmaNetDevice/MacRx ns3::EthernetHeader ( length/type=0x806, source=00:00:00:00:00:04, destination=00:00:00:00:00:08) ns3::ArpHeader (reply source mac: 00-06-00:00:00:00:00:04 source ipv4: 10.1.1.4 dest mac: 00-06-00:00:00:00:00:08 dest ipv4: 10.1.1.8) Payload (size=18) ns3::EthernetTrailer (fcs=0)
+ 2.007 /NodeList/7/DeviceList/1/$ns3::CsmaNetDevice/TxQueue/Enqueue ns3::EthernetHeader ( length/type=0x800, source=00:00:00:00:00:08, destination=00:00:00:00:00:04) ns3::Ipv4Header (tos 0x0 DSCP Default ECN Not-ECT ttl 64 id 0 protocol 17 offset (bytes) 0 flags [none] length: 1052 10.1.1.8 > 10.1.1.4) ns3::UdpHeader (length: 1032 49153 > 9) Payload (size=1024) ns3::EthernetTrailer (fcs=0)
- 2.007 /NodeList/7/DeviceList/1/$ns3::CsmaNetDevice/TxQueue/Dequeue ns3::EthernetHeader ( length/type=0x800, source=00:00:00:00:00:08, destination=00:00:00:00:00:04) ns3::Ipv4Header (tos 0x0 DSCP Default ECN Not-ECT ttl 64 id 0 protocol 17 offset (bytes) 0 flags [none] length: 1052 10.1.1.8 > 10.1.1.4) ns3::UdpHeader (length: 1032 49153 > 9) Payload (size=1024) ns3::EthernetTrailer (fcs=0)
+ 2.008 /NodeList/6/DeviceList/1/$ns3::CsmaNetDevice/TxQueue/Enqueue ns3::EthernetHeader ( length/type=0x806, source=00:00:00:00:00:07, destination=ff:ff:ff:ff:ff:ff) ns3::ArpHeader (request source mac: 00-06-00:00:00:00:00:07 source ipv4: 10.1.1.7 dest ipv4: 10.1.1.3) Payload (size=18) ns3::EthernetTrailer (fcs=0)
- 2.008 /NodeList/6/DeviceList/1/$ns3::CsmaNetDevice/TxQueue/Dequeue ns3::EthernetHeader ( length/type=0x806, source=00:00:00:00:00:07, destination=ff:ff:ff:ff:ff:ff) ns3::ArpHeader (request source mac: 00-06-00:00:00:00:00:07 source ipv4: 10.1.1.7 dest ipv4: 10.1.1.3) Payload (size=18) ns3::EthernetTrailer (fcs=0)
r 2.00951 /NodeList/1/DeviceList/1/$ns3::CsmaNetDevice/MacRx ns3::EthernetHeader ( length/type=0x806, source=00:00:00:00:00:01, destination=ff:ff:ff:ff:ff:ff) ns3::ArpHeader (request source mac: 00-06-00:00:00:00:00:01 source ipv4: 10.1.1.1 dest ipv4: 10.1.1.5) Payload (size=18) ns3::EthernetTrailer (fcs=0)
r 2.00951 /NodeList/2/DeviceList/1/$ns3::CsmaNetDevice/MacRx ns3::EthernetHeader ( length/type=0x806, source=00:00:00:00:00:01, destination=ff:ff:ff:ff:ff:ff) ns3::ArpHeader (request source mac: 00-06-00:00:00:00:00:01 source ipv4: 10.1.1.1 dest ipv4: 10.1.1.5) Payload (size=18) ns3::EthernetTrailer (fcs=0)
r 2.00951 /NodeList/3/DeviceList/1/$ns3::CsmaNetDevice/MacRx ns3::EthernetHeader ( length/type=0x806, source=00:00:00:00:00:01, destination=ff:ff:ff:ff:ff:ff) ns3::ArpHeader (request source mac: 00-06-00:00:00:00:00:01 source ipv4: 10.1.1.1 dest ipv4: 10.1.1.5) Payload (size=18) ns3::EthernetTrailer (fcs=0)
r 2.00951 /NodeList/4/DeviceList/1/$ns3::CsmaNetDevice/MacRx ns3::EthernetHeader ( length/type=0x806, source=00:00:00:00:00:01, destination=ff:ff:ff:ff:ff:ff) ns3::ArpHeader (request source mac: 00-06-00:00:00:00:00:01 source ipv4: 10.1.1.1 dest ipv4: 10.1.1.5) Payload (size=18) ns3::EthernetTrailer (fcs=0)
+ 2.00951 /NodeList/4/DeviceList/1/$ns3::CsmaNetDevice/TxQueue/Enqueue ns3::EthernetHeader ( length/type=0x806, source=00:00:00:00:00:05, destination=00:00:00:00:00:01) ns3::ArpHeader (reply source mac: 00-06-00:00:00:00:00:05 source ipv4: 10.1.1.5 dest mac: 00-06-00:00:00:00:00:01 dest ipv4: 10.1.1.1) Payload (size=18) ns3::EthernetTrailer (fcs=0)
- 2.00951 /NodeList/4/DeviceList/1/$ns3::CsmaNetDevice/TxQueue/Dequeue ns3::EthernetHeader ( length/type=0x806, source=00:00:00:00:00:05, destination=00:00:00:00:00:01) ns3::ArpHeader (reply source mac: 00-06-00:00:00:00:00:05 source ipv4: 10.1.1.5 dest mac: 00-06-00:00:00:00:00:01 dest ipv4: 10.1.1.1) Payload (size=18) ns3::EthernetTrailer (fcs=0)
r 2.00951 /NodeList/5/DeviceList/1/$ns3::CsmaNetDevice/MacRx ns3::EthernetHeader ( length/type=0x806, source=00:00:00:00:00:01, destination=ff:ff:ff:ff:ff:ff) ns3::ArpHeader (request source mac: 00-06-00:00:00:00:00:01 source ipv4: 10.1.1.1 dest ipv4: 10.1.1.5) Payload (size=18) ns3::EthernetTrailer (fcs=0)
r 2.00951 /NodeList/6/DeviceList/1/$ns3::CsmaNetDevice/MacRx ns3::EthernetHeader ( length/type=0x806, source=00:00:00:00:00:01, destination=ff:ff:ff:ff:ff:ff) ns3::ArpHeader (request source mac: 00-06-00:00:00:00:00:01 source ipv4: 10.1.1.1 dest ipv4: 10.1.1.5) Payload (size=18) ns3::EthernetTrailer (fcs=0)
r 2.00951 /NodeList/7/DeviceList/1/$ns3::CsmaNetDevice/MacRx ns3::EthernetHeader ( length/type=0x806, source=00:00:00:00:00:01, destination=ff:ff:ff:ff:ff:ff) ns3::ArpHeader (request source mac: 00-06-00:00:00:00:00:01 source ipv4: 10.1.1.1 dest ipv4: 10.1.1.5) Payload (size=18) ns3::EthernetTrailer (fcs=0)
r 2.01202 /NodeList/0/DeviceList/1/$ns3::CsmaNetDevice/MacRx ns3::EthernetHeader ( length/type=0x806, source=00:00:00:00:00:02, destination=ff:ff:ff:ff:ff:ff) ns3::ArpHeader (request source mac: 00-06-00:00:00:00:00:02 source ipv4: 10.1.1.2 dest ipv4: 10.1.1.6) Payload (size=18) ns3::EthernetTrailer (fcs=0)
r 2.01202 /NodeList/2/DeviceList/1/$ns3::CsmaNetDevice/MacRx ns3::EthernetHeader ( length/type=0x806, source=00:00:00:00:00:02, destination=ff:ff:ff:ff:ff:ff) ns3::ArpHeader (request source mac: 00-06-00:00:00:00:00:02 source ipv4: 10.1.1.2 dest ipv4: 10.1.1.6) Payload (size=18) ns3::EthernetTrailer (fcs=0)
r 2.01202 /NodeList/3/DeviceList/1/$ns3::CsmaNetDevice/MacRx ns3::EthernetHeader ( length/type=0x806, source=00:00:00:00:00:02, destination=ff:ff:ff:ff:ff:ff) ns3::ArpHeader (request source mac: 00-06-00:00:00:00:00:02 source ipv4: 10.1.1.2 dest ipv4: 10.1.1.6) Payload (size=18) ns3::EthernetTrailer (fcs=0)
r 2.01202 /NodeList/4/DeviceList/1/$ns3::CsmaNetDevice/MacRx ns3::EthernetHeader ( length/type=0x806, source=00:00:00:00:00:02, destination=ff:ff:ff:ff:ff:ff) ns3::ArpHeader (request source mac: 00-06-00:00:00:00:00:02 source ipv4: 10.1.1.2 dest ipv4: 10.1.1.6) Payload (size=18) ns3::EthernetTrailer (fcs=0)
r 2.01202 /NodeList/5/DeviceList/1/$ns3::CsmaNetDevice/MacRx ns3::EthernetHeader ( length/type=0x806, source=00:00:00:00:00:02, destination=ff:ff:ff:ff:ff:ff) ns3::ArpHeader (request source mac: 00-06-00:00:00:00:00:02 source ipv4: 10.1.1.2 dest ipv4: 10.1.1.6) Payload (size=18) ns3::EthernetTrailer (fcs=0)
+ 2.01202 /NodeList/5/DeviceList/1/$ns3::CsmaNetDevice/TxQueue/Enqueue ns3::EthernetHeader ( length/type=0x806, source=00:00:00:00:00:06, destination=00:00:00:00:00:02) ns3::ArpHeader (reply source mac: 00-06-00:00:00:00:00:06 source ipv4: 10.1.1.6 dest mac: 00-06-00:00:00:00:00:02 dest ipv4: 10.1.1.2) Payload (size=18) ns3::EthernetTrailer (fcs=0)
- 2.01202 /NodeList/5/DeviceList/1/$ns3::CsmaNetDevice/TxQueue/Dequeue ns3::EthernetHeader ( length/type=0x806, source=00:00:00:00:00:06, destination=00:00:00:00:00:02) ns3::ArpHeader (reply source mac: 00-06-00:00:00:00:00:06 source ipv4: 10.1.1.6 dest mac: 00-06-00:00:00:00:00:02 dest ipv4: 10.1.1.2) Payload (size=18) ns3::EthernetTrailer (fcs=0)
r 2.01202 /NodeList/6/DeviceList/1/$ns3::CsmaNetDevice/MacRx ns3::EthernetHeader ( length/type=0x806, source=00:00:00:00:00:02, destination=ff:ff:ff:ff:ff:ff) ns3::ArpHeader (request source mac: 00-06-00:00:00:00:00:02 source ipv4: 10.1.1.2 dest ipv4: 10.1.1.6) Payload (size=18) ns3::EthernetTrailer (fcs=0)
r 2.01202 /NodeList/7/DeviceList/1/$ns3::CsmaNetDevice/MacRx ns3::EthernetHeader ( length/type=0x806, source=00:00:00:00:00:02, destination=ff:ff:ff:ff:ff:ff) ns3::ArpHeader (request source mac: 00-06-00:00:00:00:00:02 source ipv4: 10.1.1.2 dest ipv4: 10.1.1.6) Payload (size=18) ns3::EthernetTrailer (fcs=0)
r 2.01452 /NodeList/0/DeviceList/1/$ns3::CsmaNetDevice/MacRx ns3::EthernetHeader ( length/type=0x806, source=00:00:00:00:00:07, destination=ff:ff:ff:ff:ff:ff) ns3::ArpHeader (request source mac: 00-06-00:00:00:00:00:07 source ipv4: 10.1.1.7 dest ipv4: 10.1.1.3) Payload (size=18) ns3::EthernetTrailer (fcs=0)
r 2.01452 /NodeList/1/DeviceList/1/$ns3::CsmaNetDevice/MacRx ns3::EthernetHeader ( length/type=0x806, source=00:00:00:00:00:07, destination=ff:ff:ff:ff:ff:ff) ns3::ArpHeader (request source mac: 00-06-00:00:00:00:00:07 source ipv4: 10.1.1.7 dest ipv4: 10.1.1.3) Payload (size=18) ns3::EthernetTrailer (fcs=0)
r 2.01452 /NodeList/2/DeviceList/1/$ns3::CsmaNetDevice/MacRx ns3::EthernetHeader ( length/type=0x806, source=00:00:00:00:00:07, destination=ff:ff:ff:ff:ff:ff) ns3::ArpHeader (request source mac: 00-06-00:00:00:00:00:07 source ipv4: 10.1.1.7 dest ipv4: 10.1.1.3) Payload (size=18) ns3::EthernetTrailer (fcs=0)
+ 2.01452 /NodeList/2/DeviceList/1/$ns3::CsmaNetDevice/TxQueue/Enqueue ns3::EthernetHeader ( length/type=0x806, source=00:00:00:00:00:03, destination=00:00:00:00:00:07) ns3::ArpHeader (reply source mac: 00-06-00:00:00:00:00:03 source ipv4: 10.1.1.3 dest mac: 00-06-00:00:00:00:00:07 dest ipv4: 10.1.1.7) Payload (size=18) ns3::EthernetTrailer (fcs=0)
- 2.01452 /NodeList/2/DeviceList/1/$ns3::CsmaNetDevice/TxQueue/Dequeue ns3::EthernetHeader ( length/type=0x806, source=00:00:00:00:00:03, destination=00:00:00:00:00:07) ns3::ArpHeader (reply source mac: 00-06-00:00:00:00:00:03 source ipv4: 10.1.1.3 dest mac: 00-06-00:00:00:00:00:07 dest ipv4: 10.1.1.7) Payload (size=18) ns3::EthernetTrailer (fcs=0)
r 2.01452 /NodeList/3/DeviceList/1/$ns3::CsmaNetDevice/MacRx ns3::EthernetHeader ( length/type=0x806, source=00:00:00:00:00:07, destination=ff:ff:ff:ff:ff:ff) ns3::ArpHeader (request source mac: 00-06-00:00:00:00:00:07 source ipv4: 10.1.1.7 dest ipv4: 10.1.1.3) Payload (size=18) ns3::EthernetTrailer (fcs=0)
r 2.01452 /NodeList/4/DeviceList/1/$ns3::CsmaNetDevice/MacRx ns3::EthernetHeader ( length/type=0x806, source=00:00:00:00:00:07, destination=ff:ff:ff:ff:ff:ff) ns3::ArpHeader (request source mac: 00-06-00:00:00:00:00:07 source ipv4: 10.1.1.7 dest ipv4: 10.1.1.3) Payload (size=18) ns3::EthernetTrailer (fcs=0)
r 2.01452 /NodeList/5/DeviceList/1/$ns3::CsmaNetDevice/MacRx ns3::EthernetHeader ( length/type=0x806, source=00:00:00:00:00:07, destination=ff:ff:ff:ff:ff:ff) ns3::ArpHeader (request source mac: 00-06-00:00:00:00:00:07 source ipv4: 10.1.1.7 dest ipv4: 10.1.1.3) Payload (size=18) ns3::EthernetTrailer (fcs=0)
r 2.01452 /NodeList/7/DeviceList/1/$ns3::CsmaNetDevice/MacRx ns3::EthernetHeader ( length/type=0x806, source=00:00:00:00:00:07, destination=ff:ff:ff:ff:ff:ff) ns3::ArpHeader (request source mac: 00-06-00:00:00:00:00:07 source ipv4: 10.1.1.7 dest ipv4: 10.1.1.3) Payload (size=18) ns3::EthernetTrailer (fcs=0)
+ 2.01562 /NodeList/7/DeviceList/1/$ns3::CsmaNetDevice/TxQueue/Enqueue ns3::EthernetHeader ( length/type=0x800, source=00:00:00:00:00:08, destination=00:00:00:00:00:04) ns3::Ipv4Header (tos 0x0 DSCP Default ECN Not-ECT ttl 64 id 1 protocol 17 offset (bytes) 0 flags [none] length: 1052 10.1.1.8 > 10.1.1.4) ns3::UdpHeader (length: 1032 49153 > 9) Payload (size=1024) ns3::EthernetTrailer (fcs=0)
- 2.02298 /NodeList/7/DeviceList/1/$ns3::CsmaNetDevice/TxQueue/Dequeue ns3::EthernetHeader ( length/type=0x800, source=00:00:00:00:00:08, destination=00:00:00:00:00:04) ns3::Ipv4Header (tos 0x0 DSCP Default ECN Not-ECT ttl 64 id 1 protocol 17 offset (bytes) 0 flags [none] length: 1052 10.1.1.8 > 10.1.1.4) ns3::UdpHeader (length: 1032 49153 > 9) Payload (size=1024) ns3::EthernetTrailer (fcs=0)
r 2.02489 /NodeList/3/DeviceList/1/$ns3::CsmaNetDevice/MacRx ns3::EthernetHeader ( length/type=0x800, source=00:00:00:00:00:08, destination=00:00:00:00:00:04) ns3::Ipv4Header (tos 0x0 DSCP Default ECN Not-ECT ttl 64 id 0 protocol 17 offset (bytes) 0 flags [none] length: 1052 10.1.1.8 > 10.1.1.4) ns3::UdpHeader (length: 1032 49153 > 9) Payload (size=1024) ns3::EthernetTrailer (fcs=0)
+ 2.02689 /NodeList/3/DeviceList/1/$ns3::CsmaNetDevice/TxQueue/Enqueue ns3::EthernetHeader ( length/type=0x806, source=00:00:00:00:00:04, destination=ff:ff:ff:ff:ff:ff) ns3::ArpHeader (request source mac: 00-06-00:00:00:00:00:04 source ipv4: 10.1.1.4 dest ipv4: 10.1.1.8) Payload (size=18) ns3::EthernetTrailer (fcs=0)
- 2.02689 /NodeList/3/DeviceList/1/$ns3::CsmaNetDevice/TxQueue/Dequeue ns3::EthernetHeader ( length/type=0x806, source=00:00:00:00:00:04, destination=ff:ff:ff:ff:ff:ff) ns3::ArpHeader (request source mac: 00-06-00:00:00:00:00:04 source ipv4: 10.1.1.4 dest ipv4: 10.1.1.8) Payload (size=18) ns3::EthernetTrailer (fcs=0)
+ 2.03125 /NodeList/7/DeviceList/1/$ns3::CsmaNetDevice/TxQueue/Enqueue ns3::EthernetHeader ( length/type=0x800, source=00:00:00:00:00:08, destination=00:00:00:00:00:04) ns3::Ipv4Header (tos 0x0 DSCP Default ECN Not-ECT ttl 64 id 2 protocol 17 offset (bytes) 0 flags [none] length: 1052 10.1.1.8 > 10.1.1.4) ns3::UdpHeader (length: 1032 49153 > 9) Payload (size=1024) ns3::EthernetTrailer (fcs=0)
- 2.03336 /NodeList/7/DeviceList/1/$ns3::CsmaNetDevice/TxQueue/Dequeue ns3::EthernetHeader ( length/type=0x800, source=00:00:00:00:00:08, destination=00:00:00:00:00:04) ns3::Ipv4Header (tos 0x0 DSCP Default ECN Not-ECT ttl 64 id 2 protocol 17 offset (bytes) 0 flags [none] length: 1052 10.1.1.8 > 10.1.1.4) ns3::UdpHeader (length: 1032 49153 > 9) Payload (size=1024) ns3::EthernetTrailer (fcs=0)
r 2.03526 /NodeList/3/DeviceList/1/$ns3::CsmaNetDevice/MacRx ns3::EthernetHeader ( length/type=0x800, source=00:00:00:00:00:08, destination=00:00:00:00:00:04) ns3::Ipv4Header (tos 0x0 DSCP Default ECN Not-ECT ttl 64 id 1 protocol 17 offset (bytes) 0 flags [none] length: 1052 10.1.1.8 > 10.1.1.4) ns3::UdpHeader (length: 1032 49153 > 9) Payload (size=1024) ns3::EthernetTrailer (fcs=0)
r 2.04563 /NodeList/3/DeviceList/1/$ns3::CsmaNetDevice/MacRx ns3::EthernetHeader ( length/type=0x800, source=00:00:00:00:00:08, destination=00:00:00:00:00:04) ns3::Ipv4Header (tos 0x0 DSCP Default ECN Not-ECT ttl 64 id 2 protocol 17 offset (bytes) 0 flags [none] length: 1052 10.1.1.8 > 10.1.1.4) ns3::UdpHeader (length: 1032 49153 > 9) Payload (size=1024) ns3::EthernetTrailer (fcs=0)
+ 2.04688 /NodeList/7/DeviceList/1/$ns3::CsmaNetDevice/TxQueue/Enqueue ns3::EthernetHeader ( length/type=0x800, source=00:00:00:00:00:08, destination=00:00:00:00:00:04) ns3::Ipv4Header (tos 0x0 DSCP Default ECN Not-ECT ttl 64 id 3 protocol 17 offset (bytes) 0 flags [none] length: 1052 10.1.1.8 > 10.1.1.4) ns3::UdpHeader (length: 1032 49153 > 9) Payload (size=1024) ns3::EthernetTrailer (fcs=0)
- 2.04688 /NodeList/7/DeviceList/1/$ns3::CsmaNetDevice/TxQueue/Dequeue ns3::EthernetHeader ( length/type=0x800, source=00:00:00:00:00:08, destination=00:00:00:00:00:04) ns3::Ipv4Header (tos 0x0 DSCP Default ECN Not-ECT ttl 64 id 3 protocol 17 offset (bytes) 0 flags [none] length: 1052 10.1.1.8 > 10.1.1.4) ns3::UdpHeader (length: 1032 49153 > 9) Payload (size=1024) ns3::EthernetTrailer (fcs=0)
r 2.05724 /NodeList/3/DeviceList/1/$ns3::CsmaNetDevice/MacRx ns3::EthernetHeader ( length/type=0x800, source=00:00:00:00:00:08, destination=00:00:00:00:00:04) ns3::Ipv4Header (tos 0x0 DSCP Default ECN Not-ECT ttl 64 id 3 protocol 17 offset (bytes) 0 flags [none] length: 1052 10.1.1.8 > 10.1.1.4) ns3::UdpHeader (length: 1032 49153 > 9) Payload (size=1024) ns3::EthernetTrailer (fcs=0)
+ 2.0625 /NodeList/7/DeviceList/1/$ns3::CsmaNetDevice/TxQueue/Enqueue ns3::EthernetHeader ( length/type=0x800, source=00:00:00:00:00:08, destination=00:00:00:00:00:04) ns3::Ipv4Header (tos 0x0 DSCP Default ECN Not-ECT ttl 64 id 4 protocol 17 offset (bytes) 0 flags [none] length: 1052 10.1.1.8 > 10.1.1.4) ns3::UdpHeader (length: 1032 49153 > 9) Payload (size=1024) ns3::EthernetTrailer (fcs=0)
- 2.0625 /NodeList/7/DeviceList/1/$ns3::CsmaNetDevice/TxQueue/Dequeue ns3::EthernetHeader ( length/type=0x800, source=00:00:00:00:00:08, destination=00:00:00:00:00:04) ns3::Ipv4Header (tos 0x0 DSCP Default ECN Not-ECT ttl 64 id 4 protocol 17 offset (bytes) 0 flags [none] length: 1052 10.1.1.8 > 10.1.1.4) ns3::UdpHeader (length: 1032 49153 > 9) Payload (size=1024) ns3::EthernetTrailer (fcs=0)
r 2.07288 /NodeList/3/DeviceList/1/$ns3::CsmaNetDevice/MacRx ns3::EthernetHeader ( length/type=0x800, source=00:00:00:00:00:08, destination=00:00:00:00:00:04) ns3::Ipv4Header (tos 0x0 DSCP Default ECN Not-ECT ttl 64 id 4 protocol 17 offset (bytes) 0 flags [none] length: 1052 10.1.1.8 > 10.1.1.4) ns3::UdpHeader (length: 1032 49153 > 9) Payload (size=1024) ns3::EthernetTrailer (fcs=0)
+ 2.07812 /NodeList/7/DeviceList/1/$ns3::CsmaNetDevice/TxQueue/Enqueue ns3::EthernetHeader ( length/type=0x800, source=00:00:00:00:00:08, destination=00:00:00:00:00:04) ns3::Ipv4Header (tos 0x0 DSCP Default ECN Not-ECT ttl 64 id 5 protocol 17 offset (bytes) 0 flags [none] length: 1052 10.1.1.8 > 10.1.1.4) ns3::UdpHeader (length: 1032 49153 > 9) Payload (size=1024) ns3::EthernetTrailer (fcs=0)
- 2.07812 /NodeList/7/DeviceList/1/$ns3::CsmaNetDevice/TxQueue/Dequeue ns3::EthernetHeader ( length/type=0x800, source=00:00:00:00:00:08, destination=00:00:00:00:00:04) ns3::Ipv4Header (tos 0x0 DSCP Default ECN Not-ECT ttl 64 id 5 protocol 17 offset (bytes) 0 flags [none] length: 1052 10.1.1.8 > 10.1.1.4) ns3::UdpHeader (length: 1032 49153 > 9) Payload (size=1024) ns3::EthernetTrailer (fcs=0)
r 2.08849 /NodeList/3/DeviceList/1/$ns3::CsmaNetDevice/MacRx ns3::EthernetHeader ( length/type=0x800, source=00:00:00:00:00:08, destination=00:00:00:00:00:04) ns3::Ipv4Header (tos 0x0 DSCP Default ECN Not-ECT ttl 64 id 5 protocol 17 offset (bytes) 0 flags [none] length: 1052 10.1.1.8 > 10.1.1.4) ns3::UdpHeader (length: 1032 49153 > 9) Payload (size=1024) ns3::EthernetTrailer (fcs=0)
+ 2.09375 /NodeList/7/DeviceList/1/$ns3::CsmaNetDevice/TxQueue/Enqueue ns3::EthernetHeader ( length/type=0x800, source=00:00:00:00:00:08, destination=00:00:00:00:00:04) ns3::Ipv4Header (tos 0x0 DSCP Default ECN Not-ECT ttl 64 id 6 protocol 17 offset (bytes) 0 flags [none] length: 1052 10.1.1.8 > 10.1.1.4) ns3::UdpHeader (length: 1032 49153 > 9) Payload (size=1024) ns3::EthernetTrailer (fcs=0)
- 2.09375 /NodeList/7/DeviceList/1/$ns3::CsmaNetDevice/TxQueue/Dequeue ns3::EthernetHeader ( length/type=0x800, source=00:00:00:00:00:08, destination=00:00:00:00:00:04) ns3::Ipv4Header (tos 0x0 DSCP Default ECN Not-ECT ttl 64 id 6 protocol 17 offset (bytes) 0 flags [none] length: 1052 10.1.1.8 > 10.1.1.4) ns3::UdpHeader (length: 1032 49153 > 9) Payload (size=1024) ns3::EthernetTrailer (fcs=0)
r 2.10412 /NodeList/3/DeviceList/1/$ns3::CsmaNetDevice/MacRx ns3::EthernetHeader ( length/type=0x800, source=00:00:00:00:00:08, destination=00:00:00:00:00:04) ns3::Ipv4Header (tos 0x0 DSCP Default ECN Not-ECT ttl 64 id 6 protocol 17 offset (bytes) 0 flags [none] length: 1052 10.1.1.8 > 10.1.1.4) ns3::UdpHeader (length: 1032 49153 > 9) Payload (size=1024) ns3::EthernetTrailer (fcs=0)
+ 2.10938 /NodeList/7/DeviceList/1/$ns3::CsmaNetDevice/TxQueue/Enqueue ns3::EthernetHeader ( length/type=0x800, source=00:00:00:00:00:08, destination=00:00:00:00:00:04) ns3::Ipv4Header (tos 0x0 DSCP Default ECN Not-ECT ttl 64 id 7 protocol 17 offset (bytes) 0 flags [none] length: 1052 10.1.1.8 > 10.1.1.4) ns3::UdpHeader (length: 1032 49153 > 9) Payload (size=1024) ns3::EthernetTrailer (fcs=0)
- 2.10938 /NodeList/7/DeviceList/1/$ns3::CsmaNetDevice/TxQueue/Dequeue ns3::EthernetHeader ( length/type=0x800, source=00:00:00:00:00:08, destination=00:00:00:00:00:04) ns3::Ipv4Header (tos 0x0 DSCP Default ECN Not-ECT ttl 64 id 7 protocol 17 offset (bytes) 0 flags [none] length: 1052 10.1.1.8 > 10.1.1.4) ns3::UdpHeader (length: 1032 49153 > 9) Payload (size=1024) ns3::EthernetTrailer (fcs=0)
r 2.11973 /NodeList/3/DeviceList/1/$ns3::CsmaNetDevice/MacRx ns3::EthernetHeader ( length/type=0x800, source=00:00:00:00:00:08, destination=00:00:00:00:00:04) ns3::Ipv4Header (tos 0x0 DSCP Default ECN Not-ECT ttl 64 id 7 protocol 17 offset (bytes) 0 flags [none] length: 1052 10.1.1.8 > 10.1.1.4) ns3::UdpHeader (length: 1032 49153 > 9) Payload (size=1024) ns3::EthernetTrailer (fcs=0)
+ 2.125 /NodeList/7/DeviceList/1/$ns3::CsmaNetDevice/TxQueue/Enqueue ns3::EthernetHeader ( length/type=0x800, source=00:00:00:00:00:08, destination=00:00:00:00:00:04) ns3::Ipv4Header (tos 0x0 DSCP Default ECN Not-ECT ttl 64 id 8 protocol 17 offset (bytes) 0 flags [none] length: 1052 10.1.1.8 > 10.1.1.4) ns3::UdpHeader (length: 1032 49153 > 9) Payload (size=1024) ns3::EthernetTrailer (fcs=0)
- 2.125 /NodeList/7/DeviceList/1/$ns3::CsmaNetDevice/TxQueue/Dequeue ns3::EthernetHeader ( length/type=0x800, source=00:00:00:00:00:08, destination=00:00:00:00:00:04) ns3::Ipv4Header (tos 0x0 DSCP Default ECN Not-ECT ttl 64 id 8 protocol 17 offset (bytes) 0 flags [none] length: 1052 10.1.1.8 > 10.1.1.4) ns3::UdpHeader (length: 1032 49153 > 9) Payload (size=1024) ns3::EthernetTrailer (fcs=0)
r 2.13538 /NodeList/3/DeviceList/1/$ns3::CsmaNetDevice/MacRx ns3::EthernetHeader ( length/type=0x800, source=00:00:00:00:00:08, destination=00:00:00:00:00:04) ns3::Ipv4Header (tos 0x0 DSCP Default ECN Not-ECT ttl 64 id 8 protocol 17 offset (bytes) 0 flags [none] length: 1052 10.1.1.8 > 10.1.1.4) ns3::UdpHeader (length: 1032 49153 > 9) Payload (size=1024) ns3::EthernetTrailer (fcs=0)
+ 2.14062 /NodeList/7/DeviceList/1/$ns3::CsmaNetDevice/TxQueue/Enqueue ns3::EthernetHeader ( length/type=0x800, source=00:00:00:00:00:08, destination=00:00:00:00:00:04) ns3::Ipv4Header (tos 0x0 DSCP Default ECN Not-ECT ttl 64 id 9 protocol 17 offset (bytes) 0 flags [none] length: 1052 10.1.1.8 > 10.1.1.4) ns3::UdpHeader (length: 1032 49153 > 9) Payload (size=1024) ns3::EthernetTrailer (fcs=0)
- 2.14062 /NodeList/7/DeviceList/1/$ns3::CsmaNetDevice/TxQueue/Dequeue ns3::EthernetHeader ( length/type=0x800, source=00:00:00:00:00:08, destination=00:00:00:00:00:04) ns3::Ipv4Header (tos 0x0 DSCP Default ECN Not-ECT ttl 64 id 9 protocol 17 offset (bytes) 0 flags [none] length: 1052 10.1.1.8 > 10.1.1.4) ns3::UdpHeader (length: 1032 49153 > 9) Payload (size=1024) ns3::EthernetTrailer (fcs=0)
r 2.15099 /NodeList/3/DeviceList/1/$ns3::CsmaNetDevice/MacRx ns3::EthernetHeader ( length/type=0x800, source=00:00:00:00:00:08, destination=00:00:00:00:00:04) ns3::Ipv4Header (tos 0x0 DSCP Default ECN Not-ECT ttl 64 id 9 protocol 17 offset (bytes) 0 flags [none] length: 1052 10.1.1.8 > 10.1.1.4) ns3::UdpHeader (length: 1032 49153 > 9) Payload (size=1024) ns3::EthernetTrailer (fcs=0)
+ 2.15625 /NodeList/7/DeviceList/1/$ns3::CsmaNetDevice/TxQueue/Enqueue ns3::EthernetHeader ( length/type=0x800, source=00:00:00:00:00:08, destination=00:00:00:00:00:04) ns3::Ipv4Header (tos 0x0 DSCP Default ECN Not-ECT ttl 64 id 10 protocol 17 offset (bytes) 0 flags [none] length: 1052 10.1.1.8 > 10.1.1.4) ns3::UdpHeader (length: 1032 49153 > 9) Payload (size=1024) ns3::EthernetTrailer (fcs=0)
- 2.15625 /NodeList/7/DeviceList/1/$ns3::CsmaNetDevice/TxQueue/Dequeue ns3::EthernetHeader ( length/type=0x800, source=00:00:00:00:00:08, destination=00:00:00:00:00:04) ns3::Ipv4Header (tos 0x0 DSCP Default ECN Not-ECT ttl 64 id 10 protocol 17 offset (bytes) 0 flags [none] length: 1052 10.1.1.8 > 10.1.1.4) ns3::UdpHeader (length: 1032 49153 > 9) Payload (size=1024) ns3::EthernetTrailer (fcs=0)
r 2.16663 /NodeList/3/DeviceList/1/$ns3::CsmaNetDevice/MacRx ns3::EthernetHeader ( length/type=0x800, source=00:00:00:00:00:08, destination=00:00:00:00:00:04) ns3::Ipv4Header (tos 0x0 DSCP Default ECN Not-ECT ttl 64 id 10 protocol 17 offset (bytes) 0 flags [none] length: 1052 10.1.1.8 > 10.1.1.4) ns3::UdpHeader (length: 1032 49153 > 9) Payload (size=1024) ns3::EthernetTrailer (fcs=0)
+ 2.17188 /NodeList/7/DeviceList/1/$ns3::CsmaNetDevice/TxQueue/Enqueue ns3::EthernetHeader ( length/type=0x800, source=00:00:00:00:00:08, destination=00:00:00:00:00:04) ns3::Ipv4Header (tos 0x0 DSCP Default ECN Not-ECT ttl 64 id 11 protocol 17 offset (bytes) 0 flags [none] length: 1052 10.1.1.8 > 10.1.1.4) ns3::UdpHeader (length: 1032 49153 > 9) Payload (size=1024) ns3::EthernetTrailer (fcs=0)
- 2.17188 /NodeList/7/DeviceList/1/$ns3::CsmaNetDevice/TxQueue/Dequeue ns3::EthernetHeader ( length/type=0x800, source=00:00:00:00:00:08, destination=00:00:00:00:00:04) ns3::Ipv4Header (tos 0x0 DSCP Default ECN Not-ECT ttl 64 id 11 protocol 17 offset (bytes) 0 flags [none] length: 1052 10.1.1.8 > 10.1.1.4) ns3::UdpHeader (length: 1032 49153 > 9) Payload (size=1024) ns3::EthernetTrailer (fcs=0)
r 2.18224 /NodeList/3/DeviceList/1/$ns3::CsmaNetDevice/MacRx ns3::EthernetHeader ( length/type=0x800, source=00:00:00:00:00:08, destination=00:00:00:00:00:04) ns3::Ipv4Header (tos 0x0 DSCP Default ECN Not-ECT ttl 64 id 11 protocol 17 offset (bytes) 0 flags [none] length: 1052 10.1.1.8 > 10.1.1.4) ns3::UdpHeader (length: 1032 49153 > 9) Payload (size=1024) ns3::EthernetTrailer (fcs=0)
+ 2.1875 /NodeList/7/DeviceList/1/$ns3::CsmaNetDevice/TxQueue/Enqueue ns3::EthernetHeader ( length/type=0x800, source=00:00:00:00:00:08, destination=00:00:00:00:00:04) ns3::Ipv4Header (tos 0x0 DSCP Default ECN Not-ECT ttl 64 id 12 protocol 17 offset (bytes) 0 flags [none] length: 1052 10.1.1.8 > 10.1.1.4) ns3::UdpHeader (length: 1032 49153 > 9) Payload (size=1024) ns3::EthernetTrailer (fcs=0)
- 2.1875 /NodeList/7/DeviceList/1/$ns3::CsmaNetDevice/TxQueue/Dequeue ns3::EthernetHeader ( length/type=0x800, source=00:00:00:00:00:08, destination=00:00:00:00:00:04) ns3::Ipv4Header (tos 0x0 DSCP Default ECN Not-ECT ttl 64 id 12 protocol 17 offset (bytes) 0 flags [none] length: 1052 10.1.1.8 > 10.1.1.4) ns3::UdpHeader (length: 1032 49153 > 9) Payload (size=1024) ns3::EthernetTrailer (fcs=0)